 Gaussian 16, Revision A.03,
 Gaussian 16:  ES64L-G16RevA.03 25-Dec-2016

 ----------------------------------------------------------------------
 #p td=(nstates=3,50-50) m062x 3-21g* guess=read geom=check integral=ul
 trafine nosymm
 ----------------------------------------------------------------------

 -----
 title
 -----
 Structure from the checkpoint file:  "MCULE-8764884874_08_td.chk"
 Charge =  0 Multiplicity = 1

                          Input orientation:
 ---------------------------------------------------------------------
 Center     Atomic      Atomic             Coordinates (Angstroms)
 Number     Number       Type             X           Y           Z
 ---------------------------------------------------------------------
      1          6           0        1.496501    0.392399   -0.980990
      2          6           0        2.509966   -0.036236   -0.237886
      3          6           0        3.197141   -1.309726   -0.489048
      4          7           0        2.777716   -2.076507   -1.505546
      5          6           0        3.452918   -3.240952   -1.675171
      6          7           0        4.484604   -3.647547   -0.900725
      7          6           0        4.820784   -2.800039    0.085018
      8          7           0        4.208554   -1.615171    0.338968
      9          7           0        5.842468   -3.142978    0.891311
     10          7           0        3.069743   -4.043142   -2.678251
     11          6           0        1.944031   -3.729491   -3.580739
     12          6           0        1.721376   -5.068286   -4.316646
     13          6           0        3.137698   -5.690620   -4.361332
     14          6           0        3.727771   -5.328815   -2.981537
     15          1           0        1.001032    1.331802   -0.785940
     16          1           0        1.146089   -0.204679   -1.809790
     17          1           0        2.899066    0.521612    0.599765
     18          1           0        6.323043   -4.014017    0.740012
     19          1           0        6.105946   -2.520361    1.636856
     20          1           0        2.222983   -2.934249   -4.274946
     21          1           0        1.080307   -3.399661   -3.008907
     22          1           0        1.290389   -4.926640   -5.305925
     23          1           0        1.059529   -5.705371   -3.728412
     24          1           0        3.723176   -5.212794   -5.148044
     25          1           0        3.122335   -6.765164   -4.533224
     26          1           0        4.808379   -5.208706   -2.988620
     27          1           0        3.468476   -6.076422   -2.228581
 ---------------------------------------------------------------------

 SCF Done:  E(RM062X) =  -620.852972643     A.U. after   11 cycles

 Excitation energies and oscillator strengths:

 Excited state symmetry could not be determined.
 Excited State   1:      Triplet-?Sym    3.9685 eV  312.42 nm  f=0.0000  <S**2>=2.000
      47 -> 52         0.47681
      47 -> 54        -0.15345
      50 -> 52        -0.34546
      51 -> 52        -0.26527
      51 -> 53        -0.20730
 This state for optimization and/or second-order correction.
 Total Energy, E(TD-HF/TD-DFT) =  -620.707132855
 Copying the excited state density for this state as the 1-particle RhoCI density.

 Excited state symmetry could not be determined.
 Excited State   2:      Triplet-?Sym    4.0606 eV  305.34 nm  f=0.0000  <S**2>=2.000
      50 -> 52        -0.32670
      51 -> 52         0.58206

 Excited state symmetry could not be determined.
 Excited State   3:      Triplet-?Sym    4.4797 eV  276.77 nm  f=0.0000  <S**2>=2.000
      48 -> 52         0.63784
      49 -> 52        -0.22179
      49 -> 53         0.11286

 Excited state symmetry could not be determined.
 Excited State   4:      Singlet-?Sym    4.7967 eV  258.48 nm  f=0.0006  <S**2>=0.000
      48 -> 52         0.66602
      49 -> 52        -0.17841

 Excited state symmetry could not be determined.
 Excited State   5:      Singlet-?Sym    4.9430 eV  250.83 nm  f=0.0351  <S**2>=0.000
      48 -> 52         0.17699
      49 -> 52         0.46698
      49 -> 54         0.10443
      51 -> 52        -0.45543

 Excited state symmetry could not be determined.
 Excited State   6:      Singlet-?Sym    4.9826 eV  248.83 nm  f=0.0417  <S**2>=0.000
      49 -> 52         0.46590
      49 -> 54         0.10191
      50 -> 52        -0.13674
      51 -> 52         0.47322

 Alpha  occ. eigenvalues --  -14.71275 -14.69929 -14.67183 -14.66978 -14.66840
 Alpha  occ. eigenvalues --  -10.60133 -10.59701 -10.56619 -10.51991 -10.51906
 Alpha  occ. eigenvalues --  -10.49222 -10.49166 -10.48463 -10.48157  -1.14427
 Alpha  occ. eigenvalues --   -1.07711  -1.03718  -0.98973  -0.95985  -0.89000
 Alpha  occ. eigenvalues --   -0.87021  -0.83171  -0.75642  -0.74880  -0.68806
 Alpha  occ. eigenvalues --   -0.67697  -0.64395  -0.63628  -0.60932  -0.57624
 Alpha  occ. eigenvalues --   -0.56074  -0.55051  -0.52897  -0.52476  -0.49671
 Alpha  occ. eigenvalues --   -0.48074  -0.47812  -0.46467  -0.46065  -0.42710
 Alpha  occ. eigenvalues --   -0.42377  -0.41733  -0.41107  -0.40425  -0.39504
 Alpha  occ. eigenvalues --   -0.39276  -0.30852  -0.30193  -0.29948  -0.28628
 Alpha  occ. eigenvalues --   -0.26251
 Alpha virt. eigenvalues --    0.00698   0.06481   0.12381   0.15433   0.17142
 Alpha virt. eigenvalues --    0.18508   0.20404   0.20505   0.20871   0.21169
 Alpha virt. eigenvalues --    0.22335   0.22700   0.23523   0.24073   0.24304

 Mulliken charges:
               1
     1  C   -0.360413
     2  C   -0.212798
     3  C    0.469769
     4  N   -0.620065
     5  C    0.841820
     6  N   -0.627022
     7  C    0.778315
     8  N   -0.606465
     9  N   -0.816258
    10  N   -0.746839
    11  C   -0.157819
    12  C   -0.434730
    13  C   -0.434414
    14  C   -0.157670
    15  H    0.201681
    16  H    0.226428
    17  H    0.219771
    18  H    0.335319
    19  H    0.339275
    20  H    0.219233
    21  H    0.234729
    22  H    0.212832
    23  H    0.216256
    24  H    0.216389
    25  H    0.212346
    26  H    0.232548
    27  H    0.217781
 Sum of Mulliken charges =  -0.00000

 Dipole moment (field-independent basis, Debye):
    X=              0.5909    Y=             -2.0391    Z=             -0.8997  Tot=              2.3057
 Quadrupole moment (field-independent basis, Debye-Ang):
   XX=            -71.0340   YY=            -65.7814   ZZ=            -72.1176
   XY=            -11.7128   XZ=              4.1803   YZ=              8.2218

 Normal termination of Gaussian 16 at Mon Aug 11 17:14:32 2025.
