 Gaussian 16, Revision A.03,
 Gaussian 16:  ES64L-G16RevA.03 25-Dec-2016

 ----------------------------------------------------------------------
 #p td=(nstates=3,50-50) m062x 3-21g* guess=read geom=check integral=ul
 trafine nosymm
 ----------------------------------------------------------------------

 -----
 title
 -----
 Structure from the checkpoint file:  "MCULE-8799433102_09_td.chk"
 Charge =  0 Multiplicity = 1

                          Input orientation:
 ---------------------------------------------------------------------
 Center     Atomic      Atomic             Coordinates (Angstroms)
 Number     Number       Type             X           Y           Z
 ---------------------------------------------------------------------
      1          8           0        3.112386    1.156422   -0.300062
      2          7           0        2.207082    0.197379    0.363754
      3          6           0        2.921127   -0.834076    0.687473
      4          6           0        2.214636   -1.912313    1.356241
      5          7           0        2.756898   -3.046295    1.763141
      6          7           0        1.693953   -3.782045    2.351370
      7          7           0        0.569375   -3.088699    2.286653
      8          7           0        0.901585   -1.889269    1.651438
      9          7           0        4.237662   -1.016965    0.473483
     10          1           0        2.496279    1.897496   -0.508742
     11          1           0        0.229562   -1.160595    1.466078
     12          1           0        4.745652   -0.284101    0.006368
     13          1           0        4.679294   -1.874018    0.766894
 ---------------------------------------------------------------------

 SCF Done:  E(RM062X) =  -479.340165642     A.U. after   12 cycles

 Excitation energies and oscillator strengths:

 Excited state symmetry could not be determined.
 Excited State   1:      Triplet-?Sym    3.2024 eV  387.15 nm  f=0.0000  <S**2>=2.000
      33 -> 34         0.64295
      33 -> 35        -0.21943
      33 -> 38        -0.19858
      33 <- 34         0.10346
 This state for optimization and/or second-order correction.
 Total Energy, E(TD-HF/TD-DFT) =  -479.222477770
 Copying the excited state density for this state as the 1-particle RhoCI density.

 Excited state symmetry could not be determined.
 Excited State   2:      Triplet-?Sym    4.7383 eV  261.67 nm  f=0.0000  <S**2>=2.000
      29 -> 34         0.34379
      29 -> 35         0.53895
      30 -> 35        -0.10329
      32 -> 34        -0.15241
      32 -> 35        -0.21781

 Excited state symmetry could not be determined.
 Excited State   3:      Triplet-?Sym    4.7800 eV  259.38 nm  f=0.0000  <S**2>=2.000
      22 -> 35         0.11190
      27 -> 34         0.14932
      27 -> 35         0.17474
      28 -> 34        -0.14067
      28 -> 35        -0.27052
      31 -> 34         0.44663
      31 -> 35         0.26568
      33 -> 35        -0.24241

 Excited state symmetry could not be determined.
 Excited State   4:      Singlet-?Sym    5.4792 eV  226.28 nm  f=0.1513  <S**2>=0.000
      33 -> 34         0.70212

 Excited state symmetry could not be determined.
 Excited State   5:      Singlet-?Sym    5.9779 eV  207.41 nm  f=0.0001  <S**2>=0.000
      26 -> 34        -0.10712
      26 -> 35        -0.19651
      29 -> 35        -0.15666
      30 -> 34         0.52991
      30 -> 35         0.32594
      32 -> 34         0.16752

 Excited state symmetry could not be determined.
 Excited State   6:      Singlet-?Sym    6.0257 eV  205.76 nm  f=0.0260  <S**2>=0.000
      29 -> 34        -0.27703
      29 -> 35        -0.36548
      30 -> 34        -0.20394
      32 -> 34         0.47245

 Alpha  occ. eigenvalues --  -19.58711 -14.81483 -14.79811 -14.78044 -14.74538
 Alpha  occ. eigenvalues --  -14.74138 -14.71928 -10.61395 -10.60391  -1.28126
 Alpha  occ. eigenvalues --   -1.19634  -1.07970  -1.06777  -1.02264  -0.96099
 Alpha  occ. eigenvalues --   -0.79111  -0.77074  -0.72450  -0.65354  -0.62209
 Alpha  occ. eigenvalues --   -0.60218  -0.58651  -0.53845  -0.51352  -0.50752
 Alpha  occ. eigenvalues --   -0.45266  -0.41767  -0.39351  -0.37807  -0.37259
 Alpha  occ. eigenvalues --   -0.36772  -0.36237  -0.28637
 Alpha virt. eigenvalues --   -0.00683   0.03481   0.10331   0.13851   0.15434
 Alpha virt. eigenvalues --    0.17021   0.18430   0.18657   0.21520   0.28625
 Alpha virt. eigenvalues --    0.31363   0.35719   0.39808   0.44405   0.47233

 Mulliken charges:
               1
     1  O   -0.482312
     2  N   -0.386513
     3  C    0.646690
     4  C    0.653501
     5  N   -0.409649
     6  N   -0.072100
     7  N   -0.013228
     8  N   -0.616901
     9  N   -0.829204
    10  H    0.392777
    11  H    0.399268
    12  H    0.358888
    13  H    0.358783
 Sum of Mulliken charges =  -0.00000

 Dipole moment (field-independent basis, Debye):
    X=              0.3837    Y=              4.2102    Z=             -2.0815  Tot=              4.7123
 Quadrupole moment (field-independent basis, Debye-Ang):
   XX=            -42.8405   YY=            -67.6276   ZZ=            -57.9873
   XY=              5.0509   XZ=             -4.2653   YZ=             10.1454

 Normal termination of Gaussian 16 at Mon Aug 11 15:52:42 2025.
