 Gaussian 16, Revision A.03,
 Gaussian 16:  ES64L-G16RevA.03 25-Dec-2016

 ----------------------------------------------------------------------
 #p td=(nstates=3,50-50) m062x 3-21g* guess=read geom=check integral=ul
 trafine nosymm
 ----------------------------------------------------------------------

 -----
 title
 -----
 Structure from the checkpoint file:  "ZINC000078665069_09_td.chk"
 Charge =  0 Multiplicity = 1

                          Input orientation:
 ---------------------------------------------------------------------
 Center     Atomic      Atomic             Coordinates (Angstroms)
 Number     Number       Type             X           Y           Z
 ---------------------------------------------------------------------
      1          6           0       10.092421    1.569593    4.787271
      2         16           0        9.140460    2.183348    6.211466
      3          6           0        8.043135    3.299571    5.392137
      4          6           0        7.099210    4.006400    6.146362
      5          6           0        6.247055    4.887018    5.506894
      6          6           0        6.337033    5.028173    4.117195
      7          6           0        7.293536    4.280311    3.444155
      8          7           0        8.139504    3.445241    4.065074
      9          7           0        5.502745    5.931206    3.389853
     10         16           0        3.862456    5.907921    3.392722
     11          8           0        3.411480    6.469885    2.134742
     12          8           0        3.431307    4.621205    3.887133
     13          6           0        3.457290    7.120716    4.572296
     14          6           0        2.747810    8.277416    4.487322
     15          6           0        2.736908    8.847359    5.801696
     16          6           0        3.444306    8.007060    6.604482
     17          8           0        3.898162    6.922875    5.870438
     18          6           0        3.764569    8.115582    8.017830
     19          8           0        3.393368    9.024211    8.743996
     20          8           0        4.541964    7.073403    8.425427
     21          6           0        4.917808    7.086813    9.847059
     22          1           0       10.821369    0.865177    5.184325
     23          1           0       10.593856    2.392865    4.287183
     24          1           0        9.433512    1.074163    4.080307
     25          1           0        7.049309    3.870392    7.214660
     26          1           0        5.531865    5.463931    6.070061
     27          1           0        7.382767    4.358670    2.370336
     28          1           0        5.928270    6.527456    2.687830
     29          1           0        2.293113    8.664648    3.598324
     30          1           0        2.272965    9.761456    6.113654
     31          1           0        5.510072    6.189542    9.982403
     32          1           0        4.028410    7.069430   10.473161
     33          1           0        5.496377    7.979014   10.076826
 ---------------------------------------------------------------------

 SCF Done:  E(RM062X) =  -1737.03267023     A.U. after   12 cycles

 Excitation energies and oscillator strengths:

 Excited state symmetry could not be determined.
 Excited State   1:      Triplet-?Sym    3.6609 eV  338.67 nm  f=0.0000  <S**2>=2.000
      79 -> 86        -0.10387
      82 -> 86         0.24926
      83 -> 86         0.45762
      84 -> 86        -0.41865
      85 -> 86         0.10556
 This state for optimization and/or second-order correction.
 Total Energy, E(TD-HF/TD-DFT) =  -1736.89813336
 Copying the excited state density for this state as the 1-particle RhoCI density.

 Excited state symmetry could not be determined.
 Excited State   2:      Triplet-?Sym    4.0656 eV  304.96 nm  f=0.0000  <S**2>=2.000
      81 -> 87        -0.15850
      82 -> 88        -0.14774
      85 -> 87        -0.18346
      85 -> 88         0.62494

 Excited state symmetry could not be determined.
 Excited State   3:      Triplet-?Sym    4.2955 eV  288.64 nm  f=0.0000  <S**2>=2.000
      83 -> 87        -0.22753
      84 -> 87        -0.29451
      85 -> 87         0.54356
      85 -> 88         0.15384

 Excited state symmetry could not be determined.
 Excited State   4:      Singlet-?Sym    4.8946 eV  253.31 nm  f=0.0009  <S**2>=0.000
      80 -> 86         0.62163
      80 -> 89         0.23807
      80 -> 93        -0.17489

 Excited state symmetry could not be determined.
 Excited State   5:      Singlet-?Sym    4.9466 eV  250.65 nm  f=0.0393  <S**2>=0.000
      84 -> 86        -0.14756
      85 -> 86         0.67008

 Excited state symmetry could not be determined.
 Excited State   6:      Singlet-?Sym    4.9979 eV  248.07 nm  f=0.0319  <S**2>=0.000
      81 -> 88         0.14234
      83 -> 87        -0.25783
      84 -> 87        -0.32439
      85 -> 87         0.53421

 Alpha  occ. eigenvalues --  -89.68342 -89.43243 -19.67615 -19.61433 -19.56972
 Alpha  occ. eigenvalues --  -19.55945 -19.55768 -14.74864 -14.70773 -10.66180
 Alpha  occ. eigenvalues --  -10.60556 -10.60106 -10.57237 -10.56470 -10.56028
 Alpha  occ. eigenvalues --  -10.54836 -10.54470 -10.54291 -10.52211 -10.51780
 Alpha  occ. eigenvalues --  -10.50815  -8.47609  -8.26245  -6.39317  -6.39264
 Alpha  occ. eigenvalues --   -6.39135  -6.17747  -6.17444  -6.17008  -1.29715
 Alpha  occ. eigenvalues --   -1.26883  -1.25510  -1.17077  -1.15713  -1.09304
 Alpha  occ. eigenvalues --   -1.06243  -0.95611  -0.92775  -0.91681  -0.90921
 Alpha  occ. eigenvalues --   -0.85723  -0.84252  -0.79534  -0.75829  -0.74216
 Alpha  occ. eigenvalues --   -0.73605  -0.70681  -0.68356  -0.67171  -0.65803
 Alpha  occ. eigenvalues --   -0.63974  -0.63099  -0.59867  -0.59302  -0.57676
 Alpha  occ. eigenvalues --   -0.56228  -0.56072  -0.55740  -0.53823  -0.53157
 Alpha  occ. eigenvalues --   -0.52684  -0.51411  -0.51056  -0.50572  -0.49991
 Alpha  occ. eigenvalues --   -0.48975  -0.48815  -0.48127  -0.46584  -0.44149
 Alpha  occ. eigenvalues --   -0.43976  -0.43319  -0.41129  -0.40721  -0.40118
 Alpha  occ. eigenvalues --   -0.38772  -0.38718  -0.38397  -0.37749  -0.37268
 Alpha  occ. eigenvalues --   -0.35012  -0.34638  -0.32844  -0.31661  -0.26483
 Alpha virt. eigenvalues --   -0.03631   0.01198   0.01606   0.04498   0.07851
 Alpha virt. eigenvalues --    0.09622   0.12825   0.13819   0.14191   0.14800
 Alpha virt. eigenvalues --    0.15620   0.15986   0.17205   0.17774   0.18733

 Mulliken charges:
               1
     1  C   -0.743817
     2  S    0.264515
     3  C    0.068638
     4  C   -0.247146
     5  C   -0.145317
     6  C    0.157575
     7  C    0.105458
     8  N   -0.591866
     9  N   -0.887825
    10  S    1.405842
    11  O   -0.476514
    12  O   -0.443585
    13  C   -0.062805
    14  C   -0.262110
    15  C   -0.183357
    16  C    0.250159
    17  O   -0.522214
    18  C    0.675861
    19  O   -0.493854
    20  O   -0.551325
    21  C   -0.342371
    22  H    0.223009
    23  H    0.243399
    24  H    0.246001
    25  H    0.231163
    26  H    0.271465
    27  H    0.236571
    28  H    0.364496
    29  H    0.265187
    30  H    0.258207
    31  H    0.228960
    32  H    0.229622
    33  H    0.227980
 Sum of Mulliken charges =  -0.00000

 Dipole moment (field-independent basis, Debye):
    X=              1.8907    Y=              2.8610    Z=              1.3206  Tot=              3.6748
 Quadrupole moment (field-independent basis, Debye-Ang):
   XX=           -115.3748   YY=           -103.0862   ZZ=           -113.8016
   XY=             18.8951   XZ=             11.9175   YZ=             16.2097

 Normal termination of Gaussian 16 at Mon Aug 11 12:32:38 2025.
