 Gaussian 16, Revision A.03,
 Gaussian 16:  ES64L-G16RevA.03 25-Dec-2016

 ----------------------------------------------------------------------
 #p td=(nstates=3,50-50) m062x 3-21g* guess=read geom=check integral=ul
 trafine nosymm
 ----------------------------------------------------------------------

 -----
 title
 -----
 Structure from the checkpoint file:  "ZINC000032104853_04_td.chk"
 Charge =  0 Multiplicity = 1

                          Input orientation:
 ---------------------------------------------------------------------
 Center     Atomic      Atomic             Coordinates (Angstroms)
 Number     Number       Type             X           Y           Z
 ---------------------------------------------------------------------
      1          9           0        2.039143   -0.403633    0.745791
      2          6           0        0.697128   -0.255942    0.563049
      3          6           0        0.164652   -0.394910   -0.706190
      4          6           0       -1.201241   -0.239405   -0.894331
      5          6           0       -2.034107    0.062017    0.186899
      6          6           0       -1.474620    0.182619    1.464166
      7          6           0       -0.111402    0.026834    1.651329
      8          6           0       -3.481958    0.216944    0.014234
      9          7           0       -4.292632   -0.109250    0.996143
     10          8           0       -5.659695    0.191015    0.518393
     11          6           0       -5.537647    0.686503   -0.757320
     12          6           0       -4.193182    0.735979   -1.133693
     13          6           0       -3.843597    1.257585   -2.378177
     14          6           0       -4.844791    1.690008   -3.231142
     15          6           0       -6.190087    1.604809   -2.831323
     16          6           0       -6.558018    1.109458   -1.589040
     17          8           0       -7.277562    2.010571   -3.616618
     18          6           0       -7.219210    2.548462   -4.889514
     19          8           0       -6.186089    2.747644   -5.507217
     20          6           0       -8.575706    2.840815   -5.379775
     21          6           0       -9.725419    2.592948   -4.633456
     22          6           0      -10.956758    2.906949   -5.192622
     23          6           0      -10.991402    3.454420   -6.471382
     24          7           0       -9.885195    3.697200   -7.199546
     25          6           0       -8.701257    3.392163   -6.654172
     26          1           0        0.817854   -0.631657   -1.529109
     27          1           0       -1.622151   -0.383724   -1.876022
     28          1           0       -2.120954    0.403459    2.297907
     29          1           0        0.332969    0.124252    2.627532
     30          1           0       -2.812088    1.345507   -2.676569
     31          1           0       -4.615687    2.097058   -4.195691
     32          1           0       -7.591941    1.068581   -1.299285
     33          1           0       -9.640889    2.167583   -3.648579
     34          1           0      -11.872637    2.732560   -4.652063
     35          1           0      -11.934089    3.708407   -6.931424
     36          1           0       -7.812692    3.585351   -7.234884
 ---------------------------------------------------------------------

 SCF Done:  E(RM062X) =  -1158.73848780     A.U. after   13 cycles

 Excitation energies and oscillator strengths:

 Excited state symmetry could not be determined.
 Excited State   1:      Triplet-?Sym    3.5113 eV  353.10 nm  f=0.0000  <S**2>=2.000
      77 -> 88        -0.13536
      84 -> 91         0.14304
      85 -> 87         0.16968
      85 -> 88         0.15105
      86 -> 87         0.33935
      86 -> 88         0.49028
 This state for optimization and/or second-order correction.
 Total Energy, E(TD-HF/TD-DFT) =  -1158.60944922
 Copying the excited state density for this state as the 1-particle RhoCI density.

 Excited state symmetry could not be determined.
 Excited State   2:      Triplet-?Sym    3.9415 eV  314.56 nm  f=0.0000  <S**2>=2.000
      83 -> 87         0.38692
      83 -> 88        -0.24183
      83 -> 89        -0.47049
      83 -> 93        -0.17271

 Excited state symmetry could not be determined.
 Excited State   3:      Triplet-?Sym    4.2115 eV  294.40 nm  f=0.0000  <S**2>=2.000
      80 -> 87        -0.19608
      80 -> 89         0.12851
      81 -> 87         0.51472
      81 -> 88        -0.21869
      81 -> 89         0.11215
      85 -> 88         0.11912
      86 -> 91        -0.12543

 Excited state symmetry could not be determined.
 Excited State   4:      Singlet-?Sym    4.4388 eV  279.32 nm  f=0.0021  <S**2>=0.000
      79 -> 87         0.12847
      83 -> 87         0.58815
      83 -> 88        -0.28567
      83 -> 89        -0.11546
      83 -> 93        -0.12016

 Excited state symmetry could not be determined.
 Excited State   5:      Singlet-?Sym    4.8868 eV  253.71 nm  f=0.0029  <S**2>=0.000
      79 -> 87        -0.29017
      79 -> 88         0.10697
      79 -> 93        -0.11186
      83 -> 89        -0.59286
      83 -> 93        -0.10562

 Excited state symmetry could not be determined.
 Excited State   6:      Singlet-?Sym    5.0185 eV  247.06 nm  f=0.0143  <S**2>=0.000
      79 -> 87         0.49127
      79 -> 88        -0.17089
      79 -> 93         0.18606
      83 -> 87        -0.16767
      83 -> 89        -0.31275

 Alpha  occ. eigenvalues --  -25.16183 -19.64569 -19.64062 -19.58548 -14.77044
 Alpha  occ. eigenvalues --  -14.71540 -10.67405 -10.60371 -10.60023 -10.58789
 Alpha  occ. eigenvalues --  -10.57089 -10.55839 -10.55790 -10.54365 -10.54195
 Alpha  occ. eigenvalues --  -10.53787 -10.53517 -10.53417 -10.52957 -10.52949
 Alpha  occ. eigenvalues --  -10.52938 -10.52431 -10.52160 -10.51974 -10.51923
 Alpha  occ. eigenvalues --   -1.37183  -1.27379  -1.26629  -1.19451  -1.09190
 Alpha  occ. eigenvalues --   -1.03101  -1.00285  -0.99054  -0.94900  -0.90589
 Alpha  occ. eigenvalues --   -0.89074  -0.88367  -0.87751  -0.87060  -0.80244
 Alpha  occ. eigenvalues --   -0.75546  -0.74820  -0.74110  -0.73855  -0.73059
 Alpha  occ. eigenvalues --   -0.68853  -0.66990  -0.64907  -0.63519  -0.61898
 Alpha  occ. eigenvalues --   -0.61052  -0.59824  -0.58750  -0.58155  -0.57775
 Alpha  occ. eigenvalues --   -0.56979  -0.55963  -0.55827  -0.55424  -0.54613
 Alpha  occ. eigenvalues --   -0.54047  -0.53515  -0.52287  -0.51770  -0.49946
 Alpha  occ. eigenvalues --   -0.49854  -0.49506  -0.48581  -0.47091  -0.46701
 Alpha  occ. eigenvalues --   -0.46021  -0.45733  -0.45127  -0.43505  -0.42632
 Alpha  occ. eigenvalues --   -0.41865  -0.39940  -0.38615  -0.37875  -0.36717
 Alpha  occ. eigenvalues --   -0.34371  -0.33450  -0.32774  -0.32508  -0.31107
 Alpha  occ. eigenvalues --   -0.29817
 Alpha virt. eigenvalues --   -0.04400  -0.02405   0.00248   0.01363   0.01673
 Alpha virt. eigenvalues --    0.03030   0.08027   0.09760   0.10563   0.13279
 Alpha virt. eigenvalues --    0.14360   0.14868   0.18226   0.19059   0.20252

 Mulliken charges:
               1
     1  F   -0.306268
     2  C    0.299037
     3  C   -0.230597
     4  C   -0.201563
     5  C   -0.043935
     6  C   -0.171905
     7  C   -0.233106
     8  C    0.310137
     9  N   -0.252279
    10  O   -0.446315
    11  C    0.375346
    12  C   -0.133683
    13  C   -0.223819
    14  C   -0.215829
    15  C    0.292579
    16  C   -0.198650
    17  O   -0.632395
    18  C    0.741630
    19  O   -0.481882
    20  C   -0.221190
    21  C   -0.130627
    22  C   -0.262082
    23  C    0.070664
    24  N   -0.546474
    25  C    0.126055
    26  H    0.244263
    27  H    0.226203
    28  H    0.247798
    29  H    0.246172
    30  H    0.231050
    31  H    0.276495
    32  H    0.251673
    33  H    0.249967
    34  H    0.231232
    35  H    0.246522
    36  H    0.265776
 Sum of Mulliken charges =  -0.00000

 Dipole moment (field-independent basis, Debye):
    X=             -1.5722    Y=              0.3670    Z=             -0.5366  Tot=              1.7013
 Quadrupole moment (field-independent basis, Debye-Ang):
   XX=           -105.0817   YY=           -150.0352   ZZ=           -156.5359
   XY=             -5.2867   XZ=              4.3288   YZ=              9.4300

 Normal termination of Gaussian 16 at Mon Aug 11 17:53:56 2025.
