 Gaussian 16, Revision A.03,
 Gaussian 16:  ES64L-G16RevA.03 25-Dec-2016

 ----------------------------------------------------------------------
 #p td=(nstates=3,50-50) m062x 3-21g* guess=read geom=check integral=ul
 trafine nosymm
 ----------------------------------------------------------------------

 -----
 title
 -----
 Structure from the checkpoint file:  "ZINC000001580372_07_td.chk"
 Charge =  0 Multiplicity = 1

                          Input orientation:
 ---------------------------------------------------------------------
 Center     Atomic      Atomic             Coordinates (Angstroms)
 Number     Number       Type             X           Y           Z
 ---------------------------------------------------------------------
      1          6           0        9.006319    4.237191   -1.410642
      2          6           0        8.135446    3.859986   -0.197438
      3          6           0        8.136798    2.339458    0.058620
      4          6           0        7.131916    1.923679    1.148635
      5          6           0        7.166022    0.391604    1.416221
      6          6           0        6.663596    0.052644    2.808276
      7          8           0        5.583306   -0.482791    3.035567
      8          7           0        7.526898    0.405170    3.871981
      9         16           0        9.127184    0.978036    3.592006
     10          6           0        8.787280    2.590827    4.311287
     11          7           0        8.001569    2.752825    5.301489
     12          6           0        7.318139    1.681290    5.903173
     13          6           0        7.046492    0.484882    5.216544
     14          6           0        6.292775   -0.515339    5.821823
     15          6           0        5.849278   -0.347723    7.127360
     16          6           0        6.141775    0.822240    7.827289
     17          6           0        6.862335    1.833724    7.213038
     18          7           0        9.396338    3.703271    3.740999
     19          6           0       10.396771    3.624376    2.813192
     20          8           0       10.952222    2.584852    2.464059
     21          8           0       10.684693    4.862069    2.327863
     22          6           0       11.803666    4.914412    1.374056
     23          1           0        9.013972    5.316679   -1.571032
     24          1           0        8.628701    3.758941   -2.316486
     25          1           0       10.036471    3.905376   -1.260761
     26          1           0        7.110329    4.200735   -0.366283
     27          1           0        8.510771    4.374848    0.691928
     28          1           0        9.139000    2.035679    0.376118
     29          1           0        7.904402    1.814143   -0.872645
     30          1           0        6.119676    2.211038    0.857463
     31          1           0        7.369550    2.463230    2.064641
     32          1           0        8.180788    0.022641    1.274978
     33          1           0        6.507923   -0.123275    0.719650
     34          1           0        6.037221   -1.393357    5.258262
     35          1           0        5.268314   -1.127097    7.595440
     36          1           0        5.794443    0.947722    8.841009
     37          1           0        7.078995    2.761003    7.717829
     38          1           0        9.085321    4.611076    4.064766
     39          1           0       12.012153    5.970983    1.251981
     40          1           0       11.506917    4.464928    0.430349
     41          1           0       12.664083    4.382118    1.772093
 ---------------------------------------------------------------------

 SCF Done:  E(RM062X) =  -1363.54251799     A.U. after   13 cycles

 Excitation energies and oscillator strengths:

 Excited state symmetry could not be determined.
 Excited State   1:      Triplet-?Sym    3.3889 eV  365.85 nm  f=0.0000  <S**2>=2.000
      84 -> 87        -0.10206
      85 -> 86         0.65804
 This state for optimization and/or second-order correction.
 Total Energy, E(TD-HF/TD-DFT) =  -1363.41797660
 Copying the excited state density for this state as the 1-particle RhoCI density.

 Excited state symmetry could not be determined.
 Excited State   2:      Triplet-?Sym    4.1429 eV  299.27 nm  f=0.0000  <S**2>=2.000
      81 -> 86        -0.13782
      82 -> 86         0.19051
      83 -> 86         0.24340
      83 -> 88         0.12757
      84 -> 86         0.50578
      85 -> 87        -0.11470
      85 -> 88         0.17581

 Excited state symmetry could not be determined.
 Excited State   3:      Singlet-?Sym    4.2141 eV  294.22 nm  f=0.0620  <S**2>=0.000
      83 -> 86         0.13867
      85 -> 86         0.62771
      85 -> 87        -0.10098
      85 -> 88         0.15593

 Excited state symmetry could not be determined.
 Excited State   4:      Triplet-?Sym    4.4346 eV  279.59 nm  f=0.0000  <S**2>=2.000
      81 -> 86         0.30648
      81 -> 90         0.10422
      82 -> 86        -0.13689
      83 -> 86         0.27965
      83 -> 88         0.21374
      84 -> 86        -0.21243
      85 -> 88         0.33063
      85 -> 90         0.10556

 Excited state symmetry could not be determined.
 Excited State   5:      Singlet-?Sym    4.6478 eV  266.76 nm  f=0.0450  <S**2>=0.000
      81 -> 86        -0.27264
      82 -> 86         0.25420
      84 -> 86         0.55202

 Excited state symmetry could not be determined.
 Excited State   6:      Singlet-?Sym    4.9809 eV  248.92 nm  f=0.0026  <S**2>=0.000
      81 -> 86         0.13614
      81 -> 87        -0.11208
      81 -> 88        -0.24162
      81 -> 90         0.19128
      82 -> 87        -0.13812
      82 -> 88        -0.31155
      82 -> 90         0.21184
      83 -> 88         0.25298
      83 -> 90        -0.12564
      84 -> 88        -0.10823
      85 -> 88         0.21321

 Alpha  occ. eigenvalues --  -89.48548 -19.61947 -19.56588 -19.53534 -14.76537
 Alpha  occ. eigenvalues --  -14.74987 -14.70685 -10.68736 -10.62406 -10.61389
 Alpha  occ. eigenvalues --  -10.56394 -10.54716 -10.54167 -10.49811 -10.49752
 Alpha  occ. eigenvalues --  -10.49679 -10.49662 -10.49602 -10.49141 -10.48430
 Alpha  occ. eigenvalues --  -10.48242 -10.47772  -8.30760  -6.22300  -6.21993
 Alpha  occ. eigenvalues --   -6.21434  -1.26867  -1.18565  -1.17567  -1.12477
 Alpha  occ. eigenvalues --   -1.07444  -1.03513  -0.96375  -0.91155  -0.87616
 Alpha  occ. eigenvalues --   -0.86965  -0.85211  -0.83658  -0.82278  -0.78795
 Alpha  occ. eigenvalues --   -0.75558  -0.72489  -0.70019  -0.69608  -0.68372
 Alpha  occ. eigenvalues --   -0.66425  -0.65034  -0.63278  -0.60349  -0.59518
 Alpha  occ. eigenvalues --   -0.58436  -0.57057  -0.55943  -0.54852  -0.54313
 Alpha  occ. eigenvalues --   -0.53634  -0.52694  -0.51767  -0.51580  -0.50699
 Alpha  occ. eigenvalues --   -0.50347  -0.49245  -0.48931  -0.48606  -0.46904
 Alpha  occ. eigenvalues --   -0.46015  -0.45161  -0.44786  -0.43644  -0.42808
 Alpha  occ. eigenvalues --   -0.42436  -0.41880  -0.40521  -0.39418  -0.39254
 Alpha  occ. eigenvalues --   -0.39047  -0.37939  -0.37831  -0.37079  -0.35421
 Alpha  occ. eigenvalues --   -0.33597  -0.32373  -0.30820  -0.28717  -0.26644
 Alpha virt. eigenvalues --   -0.01093   0.03542   0.04561   0.06623   0.07834
 Alpha virt. eigenvalues --    0.10249   0.11237   0.12272   0.14899   0.16398
 Alpha virt. eigenvalues --    0.16894   0.17298   0.18137   0.19344   0.20016

 Mulliken charges:
               1
     1  C   -0.576849
     2  C   -0.413316
     3  C   -0.386051
     4  C   -0.382800
     5  C   -0.489547
     6  C    0.660863
     7  O   -0.479589
     8  N   -0.845514
     9  S    0.454870
    10  C    0.381715
    11  N   -0.616981
    12  C    0.191831
    13  C    0.283758
    14  C   -0.170912
    15  C   -0.213475
    16  C   -0.212404
    17  C   -0.170967
    18  N   -0.833463
    19  C    0.981381
    20  O   -0.507115
    21  O   -0.564586
    22  C   -0.348639
    23  H    0.197005
    24  H    0.199696
    25  H    0.192295
    26  H    0.200812
    27  H    0.193276
    28  H    0.206824
    29  H    0.195853
    30  H    0.215524
    31  H    0.204316
    32  H    0.235599
    33  H    0.242780
    34  H    0.240799
    35  H    0.217237
    36  H    0.214096
    37  H    0.222595
    38  H    0.380479
    39  H    0.231437
    40  H    0.235416
    41  H    0.231752
 Sum of Mulliken charges =  -0.00000

 Dipole moment (field-independent basis, Debye):
    X=              2.6277    Y=              3.4664    Z=             -1.4531  Tot=              4.5861
 Quadrupole moment (field-independent basis, Debye-Ang):
   XX=            -96.2880   YY=           -116.8235   ZZ=           -134.6279
   XY=             40.8049   XZ=            -10.6054   YZ=              3.9943

 Normal termination of Gaussian 16 at Mon Aug 11 19:51:43 2025.
