 Gaussian 16, Revision A.03,
 Gaussian 16:  ES64L-G16RevA.03 25-Dec-2016

 --------------------------------------------------------
 #n ZINDO sp IOP(5/33=2) PUNCH=(MO,Coord) pop=full nosymm
 --------------------------------------------------------

 -----
 title
 -----
 Symbolic Z-matrix:
 Charge =  0 Multiplicity = 1

                          Input orientation:
 ---------------------------------------------------------------------
 Center     Atomic      Atomic             Coordinates (Angstroms)
 Number     Number       Type             X           Y           Z
 ---------------------------------------------------------------------
      1          8           0        3.053960    1.204020   -0.258320
      2          7           0        2.291520    0.248990    0.379400
      3          6           0        2.971680   -0.839430    0.665000
      4          6           0        2.233130   -1.895490    1.361880
      5          7           0        2.721550   -3.038220    1.921030
      6          7           0        1.679260   -3.696680    2.449520
      7          7           0        0.564930   -3.049390    2.265720
      8          7           0        0.855990   -1.911690    1.586810
      9          7           0        4.279260   -1.106400    0.312780
     10          1           0        2.368280    1.931080   -0.351010
     11          1           0        0.149740   -1.244850    1.343410
     12          1           0        4.839650   -0.349470   -0.033780
     13          1           0        4.756550   -1.889550    0.721660
 ---------------------------------------------------------------------

 SCF Done:  E(RZINDO/S) =  -77.9366708798     A.U. after   14 cycles

 Excitation energies and oscillator strengths:

 Excited state symmetry could not be determined.
 Excited State   1:      Singlet-?Sym    4.4649 eV  277.69 nm  f=0.3611  <S**2>=0.000
      24 -> 25         0.68420
 This state for optimization and/or second-order correction.
 Total Energy, E(CIS/TDA) =  -77.7725897243
 Copying the excited state density for this state as the 1-particle RhoCI density.

 Excited state symmetry could not be determined.
 Excited State   2:      Singlet-?Sym    4.7323 eV  262.00 nm  f=0.0082  <S**2>=0.000
      17 -> 26        -0.12941
      22 -> 25         0.59871
      22 -> 26        -0.30892

 Excited state symmetry could not be determined.
 Excited State   3:      Singlet-?Sym    4.9359 eV  251.19 nm  f=0.0335  <S**2>=0.000
      17 -> 25        -0.12311
      19 -> 26         0.10466
      20 -> 25        -0.20633
      20 -> 27        -0.11449
      22 -> 25         0.24686
      22 -> 26         0.53682
      22 -> 27        -0.23338

 Alpha  occ. eigenvalues --   -1.93215  -1.70796  -1.49679  -1.37582  -1.26874
 Alpha  occ. eigenvalues --   -1.18012  -1.01924  -0.93543  -0.89066  -0.79674
 Alpha  occ. eigenvalues --   -0.78235  -0.73183  -0.62745  -0.61670  -0.61062
 Alpha  occ. eigenvalues --   -0.56074  -0.51594  -0.48208  -0.45528  -0.43826
 Alpha  occ. eigenvalues --   -0.43304  -0.42614  -0.39569  -0.35182
 Alpha virt. eigenvalues --   -0.04669  -0.00604   0.04334   0.07087   0.14123
 Alpha virt. eigenvalues --    0.16961   0.22860   0.23596   0.27977   0.28153
 Alpha virt. eigenvalues --    0.30994   0.34739   0.38553   0.44571   0.46642

 Mulliken charges:
               1
     1  O   -0.282366
     2  N   -0.304371
     3  C    0.315837
     4  C    0.268545
     5  N   -0.266084
     6  N   -0.078645
     7  N   -0.132102
     8  N   -0.015180
     9  N   -0.273907
    10  H    0.225741
    11  H    0.198005
    12  H    0.173736
    13  H    0.170790
 Sum of Mulliken charges =  -0.00000

 Dipole moment (field-independent basis, Debye):
    X=              0.5486    Y=              4.4808    Z=             -2.0933  Tot=              4.9760
 N-N= 1.622520803555D+02 E-N= 0.000000000000D+00  KE=-4.403143409092D+02
 Orbital energies and kinetic energies (alpha):
                                 1                 2
   1         O                -1.932155        -10.343095
   2         O                -1.707956         -9.909534
   3         O                -1.496793         -9.607037
   4         O                -1.375818         -9.771961
   5         O                -1.268736         -9.640879
   6         O                -1.180117         -9.485879
   7         O                -1.019239         -9.367816

 Normal termination of Gaussian 16 at Tue Aug 12 15:59:20 2025.
