 Gaussian 16, Revision A.03,
 Gaussian 16:  ES64L-G16RevA.03 25-Dec-2016

 --------------------------------------------------------
 #n ZINDO sp IOP(5/33=2) PUNCH=(MO,Coord) pop=full nosymm
 --------------------------------------------------------

 -----
 title
 -----
 Symbolic Z-matrix:
 Charge =  0 Multiplicity = 1

                          Input orientation:
 ---------------------------------------------------------------------
 Center     Atomic      Atomic             Coordinates (Angstroms)
 Number     Number       Type             X           Y           Z
 ---------------------------------------------------------------------
      1          6           0        1.454270    0.410860   -0.927330
      2          6           0        2.399960   -0.083760   -0.125990
      3          6           0        3.141700   -1.316940   -0.437850
      4          7           0        2.791070   -2.049240   -1.520790
      5          6           0        3.529960   -3.190340   -1.764910
      6          7           0        4.552590   -3.623960   -0.954700
      7          6           0        4.827830   -2.809530    0.109630
      8          7           0        4.151440   -1.649770    0.406840
      9          7           0        5.841560   -3.180260    0.942780
     10          7           0        3.288790   -3.878880   -2.911900
     11          6           0        2.059740   -3.661420   -3.699900
     12          6           0        1.706610   -5.034810   -4.301160
     13          6           0        3.001670   -5.865160   -4.232790
     14          6           0        3.854800   -5.227230   -3.119950
     15          1           0        0.905890    1.315370   -0.709050
     16          1           0        1.163720   -0.059440   -1.861310
     17          1           0        2.695860    0.392200    0.813840
     18          1           0        6.361430   -4.012740    0.757160
     19          1           0        6.069650   -2.609640    1.731320
     20          1           0        2.282400   -2.905130   -4.484980
     21          1           0        1.239660   -3.247400   -3.073880
     22          1           0        1.338660   -4.939830   -5.334200
     23          1           0        0.900110   -5.518750   -3.723530
     24          1           0        3.535600   -5.835990   -5.198130
     25          1           0        2.793230   -6.925280   -4.021020
     26          1           0        4.924070   -5.123920   -3.406750
     27          1           0        3.829760   -5.820780   -2.179780
 ---------------------------------------------------------------------

 SCF Done:  E(RZINDO/S) =  -103.627281604     A.U. after   13 cycles

 Excitation energies and oscillator strengths:

 Excited state symmetry could not be determined.
 Excited State   1:      Singlet-?Sym    4.2503 eV  291.70 nm  f=0.0004  <S**2>=0.000
      33 -> 38         0.14326
      34 -> 38         0.26250
      35 -> 38         0.58171
      35 -> 41        -0.18724
 This state for optimization and/or second-order correction.
 Total Energy, E(CIS/TDA) =  -103.471084672
 Copying the excited state density for this state as the 1-particle RhoCI density.

 Excited state symmetry could not be determined.
 Excited State   2:      Singlet-?Sym    4.6515 eV  266.55 nm  f=0.0478  <S**2>=0.000
      33 -> 38        -0.22011
      33 -> 40        -0.12932
      35 -> 39         0.14186
      36 -> 38         0.20634
      36 -> 39         0.24051
      37 -> 38         0.49112
      37 -> 40         0.13880

 Excited state symmetry could not be determined.
 Excited State   3:      Singlet-?Sym    4.6848 eV  264.65 nm  f=0.0141  <S**2>=0.000
      33 -> 38         0.44953
      33 -> 40         0.26498
      34 -> 39        -0.12262
      35 -> 39        -0.25972
      36 -> 39         0.12162
      37 -> 38         0.24923

 Alpha  occ. eigenvalues --   -1.77334  -1.69332  -1.50379  -1.41618  -1.33340
 Alpha  occ. eigenvalues --   -1.27294  -1.24050  -1.17530  -1.02372  -1.00586
 Alpha  occ. eigenvalues --   -0.94060  -0.87951  -0.86139  -0.81916  -0.80569
 Alpha  occ. eigenvalues --   -0.76793  -0.68344  -0.65905  -0.64586  -0.62712
 Alpha  occ. eigenvalues --   -0.59900  -0.57879  -0.56966  -0.55631  -0.54062
 Alpha  occ. eigenvalues --   -0.52517  -0.49732  -0.49154  -0.47888  -0.46330
 Alpha  occ. eigenvalues --   -0.45895  -0.42464  -0.36754  -0.36154  -0.36101
 Alpha  occ. eigenvalues --   -0.34235  -0.33034
 Alpha virt. eigenvalues --   -0.00463   0.02328   0.06238   0.10572   0.11069
 Alpha virt. eigenvalues --    0.11549   0.12043   0.14828   0.16252   0.16631
 Alpha virt. eigenvalues --    0.16957   0.17460   0.21621   0.21959   0.23771

 Mulliken charges:
               1
     1  C   -0.036360
     2  C   -0.018865
     3  C    0.330103
     4  N   -0.452785
     5  C    0.416011
     6  N   -0.462414
     7  C    0.415618
     8  N   -0.453581
     9  N   -0.278916
    10  N   -0.197304
    11  C    0.062532
    12  C   -0.027152
    13  C   -0.028122
    14  C    0.062882
    15  H    0.034972
    16  H    0.049162
    17  H    0.046921
    18  H    0.165067
    19  H    0.165715
    20  H    0.029831
    21  H    0.036596
    22  H    0.015772
    23  H    0.021417
    24  H    0.020355
    25  H    0.016359
    26  H    0.029972
    27  H    0.036213
 Sum of Mulliken charges =  -0.00000

 Dipole moment (field-independent basis, Debye):
    X=             -0.2310    Y=             -1.4422    Z=             -0.3249  Tot=              1.4963
 N-N= 3.437162476048D+02 E-N= 0.000000000000D+00  KE=-8.365369084895D+02
 Orbital energies and kinetic energies (alpha):
                                 1                 2
   1         O                -1.773344        -13.019277
   2         O                -1.693322        -12.573772
   3         O                -1.503792        -11.880909
   4         O                -1.416183        -12.067548
   5         O                -1.333399        -11.541021
   6         O                -1.272935        -11.977621
   7         O                -1.240496        -12.179158

 1\1\GINC-NODE032\SP\RZINDO CIS\STO-3G\C9H13N5\SGOOMAR1\12-Aug-2025\0\\
 #n ZINDO sp IOP(5/33=2) PUNCH=(MO,Coord) pop=full nosymm\\title\\0,1\C
 ,0,1.45427,0.41086,-0.92733\C,0,2.39996,-0.08376,-0.12599\C,0,3.1417,-
 1.31694,-0.43785\N,0,2.79107,-2.04924,-1.52079\C,0,3.52996,-3.19034,-1
 .76491\N,0,4.55259,-3.62396,-0.9547\C,0,4.82783,-2.80953,0.10963\N,0,4
 .15144,-1.64977,0.40684\N,0,5.84156,-3.18026,0.94278\N,0,3.28879,-3.87
 888,-2.9119\C,0,2.05974,-3.66142,-3.6999\C,0,1.70661,-5.03481,-4.30116
 \C,0,3.00167,-5.86516,-4.23279\C,0,3.8548,-5.22723,-3.11995\H,0,0.9058

 Normal termination of Gaussian 16 at Tue Aug 12 15:59:18 2025.
