 Gaussian 16, Revision A.03,
 Gaussian 16:  ES64L-G16RevA.03 25-Dec-2016

 --------------------------------------------------------
 #n ZINDO sp IOP(5/33=2) PUNCH=(MO,Coord) pop=full nosymm
 --------------------------------------------------------

 -----
 title
 -----
 Symbolic Z-matrix:
 Charge =  0 Multiplicity = 1

                          Input orientation:
 ---------------------------------------------------------------------
 Center     Atomic      Atomic             Coordinates (Angstroms)
 Number     Number       Type             X           Y           Z
 ---------------------------------------------------------------------
      1          6           0        9.987960    3.753240    6.277560
      2         16           0        8.386720    3.363810    7.042570
      3          6           0        7.187800    3.820560    5.824340
      4          6           0        5.820820    3.707360    6.116340
      5          6           0        4.900650    4.092580    5.149630
      6          6           0        5.364030    4.595630    3.921980
      7          6           0        6.762890    4.642460    3.705830
      8          7           0        7.644260    4.263740    4.640580
      9          7           0        4.495230    5.044770    2.920010
     10         16           0        3.001420    5.873910    3.252370
     11          8           0        2.699300    6.543850    2.015780
     12          8           0        2.087790    4.974810    3.889150
     13          6           0        3.514730    7.079800    4.412240
     14          6           0        3.506520    8.451220    4.403810
     15          6           0        4.119370    8.864710    5.634800
     16          6           0        4.456500    7.710100    6.298720
     17          8           0        4.088350    6.596370    5.570240
     18          6           0        5.129980    7.479810    7.574320
     19          8           0        5.545560    8.341750    8.306980
     20          8           0        5.238310    6.156990    7.841390
     21          6           0        5.917510    5.838840    9.057180
     22          1           0       10.784700    3.431500    6.956640
     23          1           0       10.094710    4.827940    6.084200
     24          1           0       10.113770    3.239900    5.314550
     25          1           0        5.471370    3.333500    7.078100
     26          1           0        3.831190    3.984020    5.353920
     27          1           0        7.187980    4.994050    2.760940
     28          1           0        4.872980    5.112180    1.978460
     29          1           0        3.130770    9.109880    3.640640
     30          1           0        4.280500    9.875830    5.957630
     31          1           0        5.854850    4.744430    9.088740
     32          1           0        5.407090    6.295600    9.911460
     33          1           0        6.958790    6.176920    9.003530
 ---------------------------------------------------------------------

 SCF Done:  E(RZINDO/S) =  -171.824273236     A.U. after   15 cycles

 Excitation energies and oscillator strengths:

 Excited state symmetry could not be determined.
 Excited State   1:      Singlet-?Sym    3.6162 eV  342.86 nm  f=0.0002  <S**2>=0.000
      47 -> 57        -0.53500
      47 -> 60        -0.32013
      47 -> 63        -0.26452
      54 -> 57         0.12676
 This state for optimization and/or second-order correction.
 Total Energy, E(CIS/TDA) =  -171.691379337
 Copying the excited state density for this state as the 1-particle RhoCI density.

 Excited state symmetry could not be determined.
 Excited State   2:      Singlet-?Sym    3.8821 eV  319.37 nm  f=0.0670  <S**2>=0.000
      54 -> 58         0.24650
      55 -> 57         0.41283
      56 -> 57         0.20992
      56 -> 58        -0.36500
      56 -> 59         0.16285

 Excited state symmetry could not be determined.
 Excited State   3:      Singlet-?Sym    4.0577 eV  305.55 nm  f=0.0240  <S**2>=0.000
      46 -> 58         0.10307
      54 -> 58         0.11357
      55 -> 57         0.18863
      55 -> 58         0.55831
      56 -> 57        -0.19036
      56 -> 58         0.10266
      56 -> 59         0.14246

 Alpha  occ. eigenvalues --   -1.87870  -1.75309  -1.70824  -1.63261  -1.49507
 Alpha  occ. eigenvalues --   -1.45549  -1.42755  -1.30408  -1.29183  -1.26867
 Alpha  occ. eigenvalues --   -1.22141  -1.13264  -1.10891  -1.02309  -0.98058
 Alpha  occ. eigenvalues --   -0.97271  -0.93689  -0.87804  -0.85590  -0.82639
 Alpha  occ. eigenvalues --   -0.80648  -0.77090  -0.74066  -0.70138  -0.68204
 Alpha  occ. eigenvalues --   -0.67468  -0.66305  -0.64025  -0.61836  -0.61428
 Alpha  occ. eigenvalues --   -0.60849  -0.60362  -0.59934  -0.58658  -0.57498
 Alpha  occ. eigenvalues --   -0.56228  -0.54182  -0.53378  -0.52727  -0.52372
 Alpha  occ. eigenvalues --   -0.51212  -0.50931  -0.47019  -0.46188  -0.44047
 Alpha  occ. eigenvalues --   -0.42967  -0.40857  -0.39820  -0.39310  -0.39126
 Alpha  occ. eigenvalues --   -0.38152  -0.37557  -0.36874  -0.36376  -0.35074
 Alpha  occ. eigenvalues --   -0.31266
 Alpha virt. eigenvalues --   -0.05188  -0.02211  -0.00305   0.00752   0.01048
 Alpha virt. eigenvalues --    0.04017   0.04858   0.06083   0.08372   0.09106
 Alpha virt. eigenvalues --    0.10291   0.11590   0.11779   0.12958   0.13696

 Mulliken charges:
               1
     1  C   -0.016413
     2  S   -0.074544
     3  C    0.172042
     4  C   -0.038139
     5  C    0.017198
     6  C    0.068972
     7  C    0.089408
     8  N   -0.360729
     9  N   -0.256668
    10  S    1.320914
    11  O   -0.763441
    12  O   -0.749264
    13  C    0.153295
    14  C    0.002478
    15  C    0.001324
    16  C    0.115188
    17  O   -0.189943
    18  C    0.485340
    19  O   -0.504381
    20  O   -0.259862
    21  C    0.081174
    22  H    0.025250
    23  H    0.032200
    24  H    0.034534
    25  H    0.042550
    26  H    0.060890
    27  H    0.048422
    28  H    0.185870
    29  H    0.077132
    30  H    0.076216
    31  H    0.029818
    32  H    0.047393
    33  H    0.045775
 Sum of Mulliken charges =   0.00000

 Dipole moment (field-independent basis, Debye):
    X=              3.6774    Y=              3.0428    Z=             -0.0816  Tot=              4.7737
 N-N= 7.224504284441D+02 E-N= 0.000000000000D+00  KE=-1.699962101655D+03
 Orbital energies and kinetic energies (alpha):
                                 1                 2
   1         O                -1.878703        -17.506121
   2         O                -1.753090        -16.585437
   3         O                -1.708239        -16.551295
   4         O                -1.632614        -16.281569
   5         O                -1.495070        -15.972281
   6         O                -1.455494        -16.119265
   7         O                -1.427550        -15.924782

 Normal termination of Gaussian 16 at Tue Aug 12 16:08:13 2025.
