 Gaussian 16, Revision A.03,
 Gaussian 16:  ES64L-G16RevA.03 25-Dec-2016

 --------------------------------------------------------
 #n ZINDO sp IOP(5/33=2) PUNCH=(MO,Coord) pop=full nosymm
 --------------------------------------------------------

 -----
 title
 -----
 Symbolic Z-matrix:
 Charge =  0 Multiplicity = 1

                          Input orientation:
 ---------------------------------------------------------------------
 Center     Atomic      Atomic             Coordinates (Angstroms)
 Number     Number       Type             X           Y           Z
 ---------------------------------------------------------------------
      1          6           0        8.751630    4.657820   -0.661030
      2          6           0        7.632210    3.943430    0.095570
      3          6           0        7.930360    2.442870    0.225600
      4          6           0        6.861040    1.763990    1.091600
      5          6           0        7.196000    0.285090    1.348620
      6          6           0        6.782240   -0.053850    2.754210
      7          8           0        5.697690   -0.504620    3.028160
      8          7           0        7.694540    0.154840    3.828400
      9         16           0        9.332680    0.733040    3.567190
     10          6           0        9.045610    2.429590    4.129840
     11          7           0        8.188180    2.721450    5.057240
     12          6           0        7.432840    1.722400    5.694340
     13          6           0        7.156790    0.459810    5.108780
     14          6           0        6.342900   -0.457590    5.777660
     15          6           0        5.815000   -0.128530    7.022460
     16          6           0        6.093230    1.107250    7.607820
     17          6           0        6.897570    2.031790    6.952310
     18          7           0        9.747850    3.499630    3.570810
     19          6           0       10.686190    3.350360    2.555320
     20          8           0       11.103980    2.319980    2.092400
     21          8           0       11.050090    4.604160    2.148750
     22          6           0       12.113540    4.608710    1.193810
     23          1           0        8.529160    5.723300   -0.786410
     24          1           0        8.898550    4.230940   -1.658440
     25          1           0        9.702950    4.583570   -0.122840
     26          1           0        6.664530    4.098380   -0.417730
     27          1           0        7.518380    4.394610    1.099960
     28          1           0        8.932720    2.300910    0.672020
     29          1           0        7.978460    1.971550   -0.772400
     30          1           0        5.868410    1.844030    0.607820
     31          1           0        6.757650    2.315300    2.045750
     32          1           0        8.258380    0.059360    1.138290
     33          1           0        6.628600   -0.360850    0.641440
     34          1           0        6.117790   -1.421300    5.315110
     35          1           0        5.172950   -0.841970    7.539150
     36          1           0        5.673690    1.351330    8.582860
     37          1           0        7.117580    3.003840    7.396290
     38          1           0        9.524870    4.441220    3.907260
     39          1           0       12.241240    5.679640    0.992560
     40          1           0       11.825440    4.058100    0.291110
     41          1           0       13.016330    4.170490    1.633030
 ---------------------------------------------------------------------

 SCF Done:  E(RZINDO/S) =  -169.953056135     A.U. after   14 cycles

 Excitation energies and oscillator strengths:

 Excited state symmetry could not be determined.
 Excited State   1:      Singlet-?Sym    3.7431 eV  331.24 nm  f=0.0009  <S**2>=0.000
      55 -> 63         0.10684
      56 -> 63         0.52638
      57 -> 63        -0.35792
      58 -> 63         0.19912
 This state for optimization and/or second-order correction.
 Total Energy, E(CIS/TDA) =  -169.815500294
 Copying the excited state density for this state as the 1-particle RhoCI density.

 Excited state symmetry could not be determined.
 Excited State   2:      Singlet-?Sym    3.9427 eV  314.47 nm  f=0.2913  <S**2>=0.000
      53 -> 60        -0.13958
      55 -> 60         0.17242
      59 -> 60         0.58817
      59 -> 61         0.19437

 Excited state symmetry could not be determined.
 Excited State   3:      Singlet-?Sym    4.1269 eV  300.43 nm  f=0.0113  <S**2>=0.000
      51 -> 61         0.10124
      52 -> 60        -0.12219
      52 -> 61         0.18744
      53 -> 60         0.29654
      53 -> 61        -0.23975
      54 -> 60        -0.11417
      54 -> 61         0.12826
      55 -> 61        -0.21752
      56 -> 60         0.17330
      57 -> 60         0.24423
      57 -> 61        -0.11521
      58 -> 60         0.16049
      59 -> 60         0.13546
      59 -> 62        -0.10764

 Alpha  occ. eigenvalues --   -1.78748  -1.73539  -1.61991  -1.57762  -1.53479
 Alpha  occ. eigenvalues --   -1.50082  -1.44754  -1.37075  -1.36643  -1.19676
 Alpha  occ. eigenvalues --   -1.18075  -1.12457  -1.09926  -1.01057  -0.98227
 Alpha  occ. eigenvalues --   -0.95802  -0.94223  -0.92416  -0.88571  -0.85149
 Alpha  occ. eigenvalues --   -0.83168  -0.77541  -0.76301  -0.75296  -0.70751
 Alpha  occ. eigenvalues --   -0.70320  -0.69325  -0.67549  -0.66893  -0.65018
 Alpha  occ. eigenvalues --   -0.63459  -0.62532  -0.60781  -0.58946  -0.58351
 Alpha  occ. eigenvalues --   -0.57422  -0.57013  -0.55507  -0.54748  -0.53733
 Alpha  occ. eigenvalues --   -0.52526  -0.52192  -0.50799  -0.49756  -0.48396
 Alpha  occ. eigenvalues --   -0.47488  -0.47209  -0.47021  -0.46845  -0.45287
 Alpha  occ. eigenvalues --   -0.44485  -0.43185  -0.40798  -0.39461  -0.38845
 Alpha  occ. eigenvalues --   -0.36937  -0.35933  -0.31679  -0.29728
 Alpha virt. eigenvalues --   -0.01191   0.01616   0.03082   0.03333   0.04917
 Alpha virt. eigenvalues --    0.05820   0.07473   0.10461   0.11010   0.11501
 Alpha virt. eigenvalues --    0.11791   0.12537   0.12880   0.14135   0.14455

 Mulliken charges:
               1
     1  C   -0.058244
     2  C   -0.028972
     3  C   -0.030679
     4  C   -0.020066
     5  C    0.005054
     6  C    0.433984
     7  O   -0.535725
     8  N   -0.194549
     9  S    0.100440
    10  C    0.299465
    11  N   -0.392321
    12  C    0.082860
    13  C    0.102314
    14  C   -0.025863
    15  C   -0.035893
    16  C   -0.040729
    17  C   -0.035331
    18  N   -0.178923
    19  C    0.562247
    20  O   -0.526852
    21  O   -0.267559
    22  C    0.079874
    23  H    0.011917
    24  H    0.018438
    25  H    0.019492
    26  H    0.018877
    27  H    0.014914
    28  H    0.023440
    29  H    0.020123
    30  H    0.027401
    31  H    0.025088
    32  H    0.033938
    33  H    0.032683
    34  H    0.048677
    35  H    0.033071
    36  H    0.030253
    37  H    0.035904
    38  H    0.186046
    39  H    0.030341
    40  H    0.049205
    41  H    0.045664
 Sum of Mulliken charges =  -0.00000

 Dipole moment (field-independent basis, Debye):
    X=              3.0269    Y=              4.4739    Z=             -1.5916  Tot=              5.6313
 N-N= 7.839201446582D+02 E-N= 0.000000000000D+00  KE=-1.814888808807D+03
 Orbital energies and kinetic energies (alpha):
                                 1                 2
   1         O                -1.787484        -16.841801
   2         O                -1.735386        -17.090132
   3         O                -1.619909        -16.728259
   4         O                -1.577623        -16.273207
   5         O                -1.534792        -15.794143
   6         O                -1.500816        -16.497943
   7         O                -1.447540        -16.802506

 Normal termination of Gaussian 16 at Tue Aug 12 15:58:50 2025.
