 Gaussian 16, Revision A.03,
 Gaussian 16:  ES64L-G16RevA.03 25-Dec-2016

 --------------------------------------------------------
 #n ZINDO sp IOP(5/33=2) PUNCH=(MO,Coord) pop=full nosymm
 --------------------------------------------------------

 -----
 title
 -----
 Symbolic Z-matrix:
 Charge =  0 Multiplicity = 1

                          Input orientation:
 ---------------------------------------------------------------------
 Center     Atomic      Atomic             Coordinates (Angstroms)
 Number     Number       Type             X           Y           Z
 ---------------------------------------------------------------------
      1          9           0        1.978670    0.190410    0.719180
      2          6           0        0.670890    0.117940    0.525610
      3          6           0        0.198960   -0.020250   -0.779940
      4          6           0       -1.176550   -0.090390   -0.973790
      5          6           0       -2.045780   -0.019280    0.120910
      6          6           0       -1.543270    0.106760    1.421080
      7          6           0       -0.170430    0.180790    1.635870
      8          6           0       -3.481800   -0.078630   -0.099580
      9          7           0       -4.325780   -0.778840    0.644150
     10          8           0       -5.619680   -0.630470    0.173300
     11          6           0       -5.567940    0.209910   -0.919560
     12          6           0       -4.227240    0.607350   -1.150780
     13          6           0       -3.927750    1.479930   -2.192840
     14          6           0       -4.970800    1.927910   -2.991890
     15          6           0       -6.283950    1.494450   -2.734270
     16          6           0       -6.634280    0.627860   -1.699940
     17          8           0       -7.356100    1.995170   -3.432890
     18          6           0       -7.313440    2.055250   -4.805550
     19          8           0       -6.379680    1.650650   -5.440720
     20          6           0       -8.553540    2.646770   -5.316250
     21          6           0       -9.524600    3.227020   -4.497020
     22          6           0      -10.666130    3.763400   -5.087360
     23          6           0      -10.797010    3.700620   -6.481140
     24          7           0       -9.861780    3.142520   -7.275570
     25          6           0       -8.760330    2.624860   -6.709300
     26          1           0        0.884010   -0.075630   -1.624250
     27          1           0       -1.578780   -0.213020   -1.981110
     28          1           0       -2.233860    0.143220    2.267440
     29          1           0        0.230280    0.281550    2.643170
     30          1           0       -2.903260    1.806650   -2.370650
     31          1           0       -4.778560    2.608490   -3.820400
     32          1           0       -7.656810    0.312980   -1.524930
     33          1           0       -9.397340    3.264570   -3.411170
     34          1           0      -11.442890    4.222590   -4.481430
     35          1           0      -11.675860    4.107130   -6.998760
     36          1           0       -8.020550    2.178940   -7.393310
 ---------------------------------------------------------------------

 SCF Done:  E(RZINDO/S) =  -184.281383253     A.U. after   15 cycles

 Excitation energies and oscillator strengths:

 Excited state symmetry could not be determined.
 Excited State   1:      Singlet-?Sym    3.6432 eV  340.31 nm  f=0.0042  <S**2>=0.000
      53 -> 62         0.15781
      53 -> 68         0.13149
      54 -> 62         0.31696
      54 -> 63         0.10072
      54 -> 64        -0.10083
      54 -> 68         0.26103
      56 -> 62         0.35101
      56 -> 63         0.11449
      56 -> 64        -0.10457
      56 -> 68         0.22121
      60 -> 62         0.12772
 This state for optimization and/or second-order correction.
 Total Energy, E(CIS/TDA) =  -184.147496525
 Copying the excited state density for this state as the 1-particle RhoCI density.

 Excited state symmetry could not be determined.
 Excited State   2:      Singlet-?Sym    4.0930 eV  302.92 nm  f=0.2352  <S**2>=0.000
      59 -> 63        -0.13167
      59 -> 66        -0.10097
      59 -> 67         0.15020
      60 -> 62        -0.22146
      60 -> 63         0.44552
      60 -> 65         0.11953
      60 -> 66         0.11981
      61 -> 62        -0.10755
      61 -> 63         0.20785
      61 -> 65         0.10446
      61 -> 67         0.26227

 Excited state symmetry could not be determined.
 Excited State   3:      Singlet-?Sym    4.2393 eV  292.47 nm  f=0.0116  <S**2>=0.000
      53 -> 62        -0.10385
      53 -> 64        -0.12186
      54 -> 62        -0.19812
      54 -> 64        -0.22349
      56 -> 62         0.29767
      56 -> 63         0.14224
      56 -> 64         0.42282
      56 -> 68        -0.18014
      56 -> 73        -0.14812

 Alpha  occ. eigenvalues --   -1.84809  -1.77957  -1.75700  -1.69087  -1.60715
 Alpha  occ. eigenvalues --   -1.56414  -1.48808  -1.35569  -1.32544  -1.25391
 Alpha  occ. eigenvalues --   -1.24696  -1.21651  -1.13235  -1.11864  -1.05052
 Alpha  occ. eigenvalues --   -0.99624  -0.96872  -0.95316  -0.94758  -0.92787
 Alpha  occ. eigenvalues --   -0.92089  -0.85599  -0.84954  -0.77918  -0.74892
 Alpha  occ. eigenvalues --   -0.71952  -0.70362  -0.69969  -0.68211  -0.66133
 Alpha  occ. eigenvalues --   -0.63400  -0.62779  -0.61968  -0.60902  -0.60298
 Alpha  occ. eigenvalues --   -0.59683  -0.58147  -0.57220  -0.56582  -0.55891
 Alpha  occ. eigenvalues --   -0.55367  -0.54124  -0.52490  -0.51374  -0.50080
 Alpha  occ. eigenvalues --   -0.49748  -0.48168  -0.47349  -0.47018  -0.45224
 Alpha  occ. eigenvalues --   -0.43579  -0.42411  -0.40472  -0.40150  -0.39081
 Alpha  occ. eigenvalues --   -0.38576  -0.35478  -0.35403  -0.34279  -0.32478
 Alpha  occ. eigenvalues --   -0.32180
 Alpha virt. eigenvalues --   -0.03039  -0.02368  -0.00505   0.00791   0.00848
 Alpha virt. eigenvalues --    0.01547   0.03688   0.05011   0.07271   0.07601
 Alpha virt. eigenvalues --    0.08579   0.08978   0.09352   0.10045   0.10241

 Mulliken charges:
               1
     1  F   -0.248977
     2  C    0.196022
     3  C   -0.025708
     4  C   -0.024103
     5  C    0.018061
     6  C   -0.014050
     7  C   -0.024237
     8  C    0.200426
     9  N   -0.295531
    10  O   -0.166899
    11  C    0.159910
    12  C   -0.021290
    13  C   -0.011881
    14  C   -0.038212
    15  C    0.161170
    16  C   -0.044495
    17  O   -0.259933
    18  C    0.467375
    19  O   -0.506818
    20  C   -0.001512
    21  C    0.042217
    22  C   -0.044210
    23  C    0.133865
    24  N   -0.352332
    25  C    0.147214
    26  H    0.050000
    27  H    0.042528
    28  H    0.049248
    29  H    0.050585
    30  H    0.041896
    31  H    0.051639
    32  H    0.053782
    33  H    0.051868
    34  H    0.039033
    35  H    0.054284
    36  H    0.069067
 Sum of Mulliken charges =   0.00000

 Dipole moment (field-independent basis, Debye):
    X=             -2.2835    Y=              4.4541    Z=             -0.0579  Tot=              5.0056
 N-N= 7.556344387253D+02 E-N= 0.000000000000D+00  KE=-1.781895089834D+03
 Orbital energies and kinetic energies (alpha):
                                 1                 2
   1         O                -1.848091        -16.685082
   2         O                -1.779572        -16.670595
   3         O                -1.756999        -14.230731
   4         O                -1.690875        -14.434036
   5         O                -1.607153        -15.058332
   6         O                -1.564137        -16.384876
   7         O                -1.488080        -16.337364

 Normal termination of Gaussian 16 at Tue Aug 12 16:05:42 2025.
